/*--------------------------------*- C++ -*----------------------------------*\
| =========                 |                                                 |
| \\      /  F ield         | OpenFOAM: The Open Source CFD Toolbox           |
|  \\    /   O peration     | Version:  2012                                  |
|   \\  /    A nd           | Website:  www.openfoam.com                      |
|    \\/     M anipulation  |                                                 |
\*---------------------------------------------------------------------------*/
FoamFile
{
    version     2.0;
    format      ascii;
    class       polyBoundaryMesh;
    location    "constant/polyMesh";
    object      boundary;
}
// * * * * * * * * * * * * * * * * * * * * * * * * * * * * * * * * * * * * * //

7
(
    building
    {
        type            wall;
        physicalType    wall;
        nFaces          0;
        startFace       26161;
    }
    inlet
    {
        type            wall;
        physicalType    wall;
        nFaces          532;
        startFace       26161;
    }
    ground
    {
        type            wall;
        physicalType    wall;
        nFaces          1068;
        startFace       26693;
    }
    wtwalls
    {
        type            wall;
        physicalType    wall;
        nFaces          1444;
        startFace       27761;
    }
    top
    {
        type            wall;
        physicalType    wall;
        nFaces          616;
        startFace       29205;
    }
    outlet
    {
        type            wall;
        physicalType    wall;
        nFaces          532;
        startFace       29821;
    }
    defaultFaces
    {
        type            patch;
        nFaces          26;
        startFace       30353;
    }
)

// ************************************************************************* //
