/*--------------------------------*- C++ -*----------------------------------*\
| =========                 |                                                 |
| \\      /  F ield         | OpenFOAM: The Open Source CFD Toolbox           |
|  \\    /   O peration     | Version:  v2012                                 |
|   \\  /    A nd           | Website:  www.openfoam.com                      |
|    \\/     M anipulation  |                                                 |
\*---------------------------------------------------------------------------*/
FoamFile
{
    version     2.0;
    format      ascii;
    class       volScalarField;
    location    "0";
    object      epsilon;
}
// * * * * * * * * * * * * * * * * * * * * * * * * * * * * * * * * * * * * * //

dimensions      [0 2 -3 0 0 0 0];


internalField   uniform 0.01;

boundaryField
{
    inlet
    {
        type            atmBoundaryLayerInletEpsilon;
        initABL         0;
        kappa           0.4;
        Cmu             0.09;
        C1              0;
        C2              1;
        flowDir         constant (1 0 0);
        zDir            constant (0 0 1);
        Uref            constant 10;
        Zref            constant 6;
        z0              constant 0.01;
        d               constant 0;
        value           nonuniform List<scalar> 
250
(
1.19753903719
1.19753903719
1.19753903719
1.19753903719
1.19753903719
0.394534099745
0.394534099745
0.394534099745
0.394534099745
0.394534099745
0.229176717771
0.229176717771
0.229176717771
0.229176717771
0.229176717771
0.157945445025
0.157945445025
0.157945445025
0.157945445025
0.157945445025
0.118360396846
0.118360396846
0.118360396846
0.118360396846
0.118360396846
0.0932206566134
0.0932206566134
0.0932206566134
0.0932206566134
0.0932206566134
0.0758786767369
0.0758786767369
0.0758786767369
0.0758786767369
0.0758786767369
0.0632229805004
0.0632229805004
0.0632229805004
0.0632229805004
0.0632229805004
0.0536028919233
0.0536028919233
0.0536028919233
0.0536028919233
0.0536028919233
0.0460612727931
0.0460612727931
0.0460612727931
0.0460612727931
0.0460612727931
0.0400048815861
0.0400048815861
0.0400048815861
0.0400048815861
0.0400048815861
0.0350464274997
0.0350464274997
0.0350464274997
0.0350464274997
0.0350464274997
0.0309223203676
0.0309223203676
0.0309223203676
0.0309223203676
0.0309223203676
0.0274469234509
0.0274469234509
0.0274469234509
0.0274469234509
0.0274469234509
0.0244857107271
0.0244857107271
0.0244857107271
0.0244857107271
0.0244857107271
0.0219388019004
0.0219388019004
0.0219388019004
0.0219388019004
0.0219388019004
0.0197304776602
0.0197304776602
0.0197304776602
0.0197304776602
0.0197304776602
0.0178022857481
0.0178022857481
0.0178022857481
0.0178022857481
0.0178022857481
0.0161083805713
0.0161083805713
0.0161083805713
0.0161083805713
0.0161083805713
0.014612295373
0.014612295373
0.014612295373
0.014612295373
0.014612295373
0.0132846582502
0.0132846582502
0.0132846582502
0.0132846582502
0.0132846582502
0.0121015449925
0.0121015449925
0.0121015449925
0.0121015449925
0.0121015449925
0.0110432707841
0.0110432707841
0.0110432707841
0.0110432707841
0.0110432707841
0.0100934901466
0.0100934901466
0.0100934901466
0.0100934901466
0.0100934901466
0.00923851711819
0.00923851711819
0.00923851711819
0.00923851711819
0.00923851711819
0.00846680525282
0.00846680525282
0.00846680525282
0.00846680525282
0.00846680525282
0.00776854525001
0.00776854525001
0.00776854525001
0.00776854525001
0.00776854525001
0.00713535028933
0.00713535028933
0.00713535028933
0.00713535028933
0.00713535028933
0.00656000753938
0.00656000753938
0.00656000753938
0.00656000753938
0.00656000753938
0.00603628014621
0.00603628014621
0.00603628014621
0.00603628014621
0.00603628014621
0.00555874812014
0.00555874812014
0.00555874812014
0.00555874812014
0.00555874812014
0.00512267948005
0.00512267948005
0.00512267948005
0.00512267948005
0.00512267948005
0.00472392514013
0.00472392514013
0.00472392514013
0.00472392514013
0.00472392514013
0.00435883257925
0.00435883257925
0.00435883257925
0.00435883257925
0.00435883257925
0.004024174483
0.004024174483
0.004024174483
0.004024174483
0.004024174483
0.00371708940655
0.00371708940655
0.00371708940655
0.00371708940655
0.00371708940655
0.00343503215396
0.00343503215396
0.00343503215396
0.00343503215396
0.00343503215396
0.00317573206028
0.00317573206028
0.00317573206028
0.00317573206028
0.00317573206028
0.00293715774052
0.00293715774052
0.00293715774052
0.00293715774052
0.00293715774052
0.00271748716002
0.00271748716002
0.00271748716002
0.00271748716002
0.00271748716002
0.002515082107
0.002515082107
0.002515082107
0.002515082107
0.002515082107
0.0023284663257
0.0023284663257
0.0023284663257
0.0023284663257
0.0023284663257
0.00215630670786
0.00215630670786
0.00215630670786
0.00215630670786
0.00215630670786
0.00199739705131
0.00199739705131
0.00199739705131
0.00199739705131
0.00199739705131
0.00185064398281
0.00185064398281
0.00185064398281
0.00185064398281
0.00185064398281
0.00171505471303
0.00171505471303
0.00171505471303
0.00171505471303
0.00171505471303
0.00158972634888
0.00158972634888
0.00158972634888
0.00158972634888
0.00158972634888
0.00147383653485
0.00147383653485
0.00147383653485
0.00147383653485
0.00147383653485
0.00136663523227
0.00136663523227
0.00136663523227
0.00136663523227
0.00136663523227
0.00126743747687
0.00126743747687
0.00126743747687
0.00126743747687
0.00126743747687
)
;
    }
    ground
    {
        lowReCorrection 0;
        blending        stepwise;
        n               2;
        type            epsilonWallFunction;
        value           uniform 0.01;
    }
    top
    {
        type            zeroGradient;
    }
    sides
    {
        type            symmetry;
    }
    outlet
    {
        type            inletOutlet;
        inletValue      uniform 0.01;
        value           uniform 0.01;
    }
}


// ************************************************************************* //
