/*--------------------------------*- C++ -*----------------------------------*\
| =========                 |                                                 |
| \\      /  F ield         | OpenFOAM: The Open Source CFD Toolbox           |
|  \\    /   O peration     | Version:  v2012                                 |
|   \\  /    A nd           | Website:  www.openfoam.com                      |
|    \\/     M anipulation  |                                                 |
\*---------------------------------------------------------------------------*/
FoamFile
{
    version     2.0;
    format      ascii;
    class       volScalarField;
    location    "0";
    object      omega;
}
// * * * * * * * * * * * * * * * * * * * * * * * * * * * * * * * * * * * * * //

dimensions      [0 0 -1 0 0 0 0];


internalField   uniform 0.0007;

boundaryField
{
    inlet
    {
        type            atmBoundaryLayerInletOmega;
        initABL         0;
        kappa           0.4;
        Cmu             0.09;
        C1              0;
        C2              1;
        flowDir         constant (1 0 0);
        zDir            constant (0 0 1);
        Uref            constant 10;
        Zref            constant 6;
        z0              constant 0.01;
        d               constant 0;
        value           nonuniform List<scalar> 
250
(
10.2145132879
10.2145132879
10.2145132879
10.2145132879
10.2145132879
3.36521289012
3.36521289012
3.36521289012
3.36521289012
3.36521289012
1.95478273046
1.95478273046
1.95478273046
1.95478273046
1.95478273046
1.34720939934
1.34720939934
1.34720939934
1.34720939934
1.34720939934
1.00956529082
1.00956529082
1.00956529082
1.00956529082
1.00956529082
0.795133691774
0.795133691774
0.795133691774
0.795133691774
0.795133691774
0.647213767341
0.647213767341
0.647213767341
0.647213767341
0.647213767341
0.53926590647
0.53926590647
0.53926590647
0.53926590647
0.53926590647
0.457210524933
0.457210524933
0.457210524933
0.457210524933
0.457210524933
0.39288362917
0.39288362917
0.39288362917
0.39288362917
0.39288362917
0.341225114049
0.341225114049
0.341225114049
0.341225114049
0.341225114049
0.298931549012
0.298931549012
0.298931549012
0.298931549012
0.298931549012
0.26375461883
0.26375461883
0.26375461883
0.26375461883
0.26375461883
0.234110918805
0.234110918805
0.234110918805
0.234110918805
0.234110918805
0.208852997538
0.208852997538
0.208852997538
0.208852997538
0.208852997538
0.187128917365
0.187128917365
0.187128917365
0.187128917365
0.187128917365
0.168292823848
0.168292823848
0.168292823848
0.168292823848
0.168292823848
0.151846143367
0.151846143367
0.151846143367
0.151846143367
0.151846143367
0.137397831956
0.137397831956
0.137397831956
0.137397831956
0.137397831956
0.124636843242
0.124636843242
0.124636843242
0.124636843242
0.124636843242
0.113312647027
0.113312647027
0.113312647027
0.113312647027
0.113312647027
0.103221179679
0.103221179679
0.103221179679
0.103221179679
0.103221179679
0.0941945378507
0.0941945378507
0.0941945378507
0.0941945378507
0.0941945378507
0.0860933013642
0.0860933013642
0.0860933013642
0.0860933013642
0.0860933013642
0.0788007346181
0.0788007346181
0.0788007346181
0.0788007346181
0.0788007346181
0.072218351198
0.072218351198
0.072218351198
0.072218351198
0.072218351198
0.0662624818229
0.0662624818229
0.0662624818229
0.0662624818229
0.0662624818229
0.0608615903789
0.0608615903789
0.0608615903789
0.0608615903789
0.0608615903789
0.055954154394
0.055954154394
0.055954154394
0.055954154394
0.055954154394
0.0514869760803
0.0514869760803
0.0514869760803
0.0514869760803
0.0514869760803
0.0474138251647
0.0474138251647
0.0474138251647
0.0474138251647
0.0474138251647
0.0436943398033
0.0436943398033
0.0436943398033
0.0436943398033
0.0436943398033
0.0402931300078
0.0402931300078
0.0402931300078
0.0402931300078
0.0402931300078
0.037179041282
0.037179041282
0.037179041282
0.037179041282
0.037179041282
0.0343245459671
0.0343245459671
0.0343245459671
0.0343245459671
0.0343245459671
0.0317052371209
0.0317052371209
0.0317052371209
0.0317052371209
0.0317052371209
0.0292994052731
0.0292994052731
0.0292994052731
0.0292994052731
0.0292994052731
0.02708768259
0.02708768259
0.02708768259
0.02708768259
0.02708768259
0.0250527421968
0.0250527421968
0.0250527421968
0.0250527421968
0.0250527421968
0.0231790428902
0.0231790428902
0.0231790428902
0.0231790428902
0.0231790428902
0.0214526114008
0.0214526114008
0.0214526114008
0.0214526114008
0.0214526114008
0.0198608558767
0.0198608558767
0.0198608558767
0.0198608558767
0.0198608558767
0.018392405455
0.018392405455
0.018392405455
0.018392405455
0.018392405455
0.0170369717297
0.0170369717297
0.0170369717297
0.0170369717297
0.0170369717297
0.0157852286786
0.0157852286786
0.0157852286786
0.0157852286786
0.0157852286786
0.0146287082188
0.0146287082188
0.0146287082188
0.0146287082188
0.0146287082188
0.0135597090454
0.0135597090454
0.0135597090454
0.0135597090454
0.0135597090454
0.0125712168054
0.0125712168054
0.0125712168054
0.0125712168054
0.0125712168054
0.0116568339788
0.0116568339788
0.0116568339788
0.0116568339788
0.0116568339788
0.0108107181036
0.0108107181036
0.0108107181036
0.0108107181036
0.0108107181036
)
;
    }
    ground
    {
        blending        binomial2;
        n               2;
        beta1           0.075;
        type            omegaWallFunction;
        value           uniform 0.0007;
    }
    top
    {
        type            zeroGradient;
    }
    sides
    {
        type            symmetry;
    }
    outlet
    {
        type            inletOutlet;
        inletValue      uniform 0.0007;
        value           uniform 0.0007;
    }
}


// ************************************************************************* //
