/*--------------------------------*- C++ -*----------------------------------*\
| =========                 |                                                 |
| \\      /  F ield         | OpenFOAM: The Open Source CFD Toolbox           |
|  \\    /   O peration     | Version:  v2012                                 |
|   \\  /    A nd           | Website:  www.openfoam.com                      |
|    \\/     M anipulation  |                                                 |
\*---------------------------------------------------------------------------*/
FoamFile
{
    version     2.0;
    format      ascii;
    class       volVectorField;
    location    "0";
    object      U;
}
// * * * * * * * * * * * * * * * * * * * * * * * * * * * * * * * * * * * * * //

dimensions      [0 1 -1 0 0 0 0];


internalField   uniform (0 0 0);

boundaryField
{
    inlet
    {
        type            atmBoundaryLayerInletVelocity;
        initABL         0;
        kappa           0.4;
        Cmu             0.09;
        C1              0;
        C2              1;
        flowDir         constant (1 0 0);
        zDir            constant (0 0 1);
        Uref            constant 10;
        Zref            constant 6;
        z0              constant 0.01;
        d               constant 0;
        value           nonuniform List<vector> 
250
(
(6.14484917144 0 0)
(6.14484917144 0 0)
(6.14484917144 0 0)
(6.14484917144 0 0)
(6.14484917144 0 0)
(7.88010255846 0 0)
(7.88010255846 0 0)
(7.88010255846 0 0)
(7.88010255846 0 0)
(7.88010255846 0 0)
(8.72905796307 0 0)
(8.72905796307 0 0)
(8.72905796307 0 0)
(8.72905796307 0 0)
(8.72905796307 0 0)
(9.31081648089 0 0)
(9.31081648089 0 0)
(9.31081648089 0 0)
(9.31081648089 0 0)
(9.31081648089 0 0)
(9.76172095493 0 0)
(9.76172095493 0 0)
(9.76172095493 0 0)
(9.76172095493 0 0)
(9.76172095493 0 0)
(10.1348729488 0 0)
(10.1348729488 0 0)
(10.1348729488 0 0)
(10.1348729488 0 0)
(10.1348729488 0 0)
(10.4565586168 0 0)
(10.4565586168 0 0)
(10.4565586168 0 0)
(10.4565586168 0 0)
(10.4565586168 0 0)
(10.7417272473 0 0)
(10.7417272473 0 0)
(10.7417272473 0 0)
(10.7417272473 0 0)
(10.7417272473 0 0)
(10.9996976796 0 0)
(10.9996976796 0 0)
(10.9996976796 0 0)
(10.9996976796 0 0)
(10.9996976796 0 0)
(11.2366723508 0 0)
(11.2366723508 0 0)
(11.2366723508 0 0)
(11.2366723508 0 0)
(11.2366723508 0 0)
(11.4569879708 0 0)
(11.4569879708 0 0)
(11.4569879708 0 0)
(11.4569879708 0 0)
(11.4569879708 0 0)
(11.6637955672 0 0)
(11.6637955672 0 0)
(11.6637955672 0 0)
(11.6637955672 0 0)
(11.6637955672 0 0)
(11.8594563625 0 0)
(11.8594563625 0 0)
(11.8594563625 0 0)
(11.8594563625 0 0)
(11.8594563625 0 0)
(12.0457850533 0 0)
(12.0457850533 0 0)
(12.0457850533 0 0)
(12.0457850533 0 0)
(12.0457850533 0 0)
(12.2242060548 0 0)
(12.2242060548 0 0)
(12.2242060548 0 0)
(12.2242060548 0 0)
(12.2242060548 0 0)
(12.3958575932 0 0)
(12.3958575932 0 0)
(12.3958575932 0 0)
(12.3958575932 0 0)
(12.3958575932 0 0)
(12.5616632378 0 0)
(12.5616632378 0 0)
(12.5616632378 0 0)
(12.5616632378 0 0)
(12.5616632378 0 0)
(12.7223823781 0 0)
(12.7223823781 0 0)
(12.7223823781 0 0)
(12.7223823781 0 0)
(12.7223823781 0 0)
(12.8786466736 0 0)
(12.8786466736 0 0)
(12.8786466736 0 0)
(12.8786466736 0 0)
(12.8786466736 0 0)
(13.0309869089 0 0)
(13.0309869089 0 0)
(13.0309869089 0 0)
(13.0309869089 0 0)
(13.0309869089 0 0)
(13.1798531361 0 0)
(13.1798531361 0 0)
(13.1798531361 0 0)
(13.1798531361 0 0)
(13.1798531361 0 0)
(13.3256300224 0 0)
(13.3256300224 0 0)
(13.3256300224 0 0)
(13.3256300224 0 0)
(13.3256300224 0 0)
(13.4686487118 0 0)
(13.4686487118 0 0)
(13.4686487118 0 0)
(13.4686487118 0 0)
(13.4686487118 0 0)
(13.6091961108 0 0)
(13.6091961108 0 0)
(13.6091961108 0 0)
(13.6091961108 0 0)
(13.6091961108 0 0)
(13.7475222422 0 0)
(13.7475222422 0 0)
(13.7475222422 0 0)
(13.7475222422 0 0)
(13.7475222422 0 0)
(13.8838461304 0 0)
(13.8838461304 0 0)
(13.8838461304 0 0)
(13.8838461304 0 0)
(13.8838461304 0 0)
(14.0183605577 0 0)
(14.0183605577 0 0)
(14.0183605577 0 0)
(14.0183605577 0 0)
(14.0183605577 0 0)
(14.151235942 0 0)
(14.151235942 0 0)
(14.151235942 0 0)
(14.151235942 0 0)
(14.151235942 0 0)
(14.2826235245 0 0)
(14.2826235245 0 0)
(14.2826235245 0 0)
(14.2826235245 0 0)
(14.2826235245 0 0)
(14.4126580098 0 0)
(14.4126580098 0 0)
(14.4126580098 0 0)
(14.4126580098 0 0)
(14.4126580098 0 0)
(14.5414597679 0 0)
(14.5414597679 0 0)
(14.5414597679 0 0)
(14.5414597679 0 0)
(14.5414597679 0 0)
(14.6691366836 0 0)
(14.6691366836 0 0)
(14.6691366836 0 0)
(14.6691366836 0 0)
(14.6691366836 0 0)
(14.7957857174 0 0)
(14.7957857174 0 0)
(14.7957857174 0 0)
(14.7957857174 0 0)
(14.7957857174 0 0)
(14.9214942328 0 0)
(14.9214942328 0 0)
(14.9214942328 0 0)
(14.9214942328 0 0)
(14.9214942328 0 0)
(15.0463411294 0 0)
(15.0463411294 0 0)
(15.0463411294 0 0)
(15.0463411294 0 0)
(15.0463411294 0 0)
(15.170397815 0 0)
(15.170397815 0 0)
(15.170397815 0 0)
(15.170397815 0 0)
(15.170397815 0 0)
(15.2937290447 0 0)
(15.2937290447 0 0)
(15.2937290447 0 0)
(15.2937290447 0 0)
(15.2937290447 0 0)
(15.4163936471 0 0)
(15.4163936471 0 0)
(15.4163936471 0 0)
(15.4163936471 0 0)
(15.4163936471 0 0)
(15.5384451567 0 0)
(15.5384451567 0 0)
(15.5384451567 0 0)
(15.5384451567 0 0)
(15.5384451567 0 0)
(15.6599323653 0 0)
(15.6599323653 0 0)
(15.6599323653 0 0)
(15.6599323653 0 0)
(15.6599323653 0 0)
(15.7808998057 0 0)
(15.7808998057 0 0)
(15.7808998057 0 0)
(15.7808998057 0 0)
(15.7808998057 0 0)
(15.9013881773 0 0)
(15.9013881773 0 0)
(15.9013881773 0 0)
(15.9013881773 0 0)
(15.9013881773 0 0)
(16.0214347212 0 0)
(16.0214347212 0 0)
(16.0214347212 0 0)
(16.0214347212 0 0)
(16.0214347212 0 0)
(16.1410735528 0 0)
(16.1410735528 0 0)
(16.1410735528 0 0)
(16.1410735528 0 0)
(16.1410735528 0 0)
(16.2603359565 0 0)
(16.2603359565 0 0)
(16.2603359565 0 0)
(16.2603359565 0 0)
(16.2603359565 0 0)
(16.3792506485 0 0)
(16.3792506485 0 0)
(16.3792506485 0 0)
(16.3792506485 0 0)
(16.3792506485 0 0)
(16.4978440112 0 0)
(16.4978440112 0 0)
(16.4978440112 0 0)
(16.4978440112 0 0)
(16.4978440112 0 0)
(16.6161403027 0 0)
(16.6161403027 0 0)
(16.6161403027 0 0)
(16.6161403027 0 0)
(16.6161403027 0 0)
(16.7341618455 0 0)
(16.7341618455 0 0)
(16.7341618455 0 0)
(16.7341618455 0 0)
(16.7341618455 0 0)
(16.8519291951 0 0)
(16.8519291951 0 0)
(16.8519291951 0 0)
(16.8519291951 0 0)
(16.8519291951 0 0)
)
;
    }
    ground
    {
        type            noSlip;
    }
    top
    {
        type            fixedShearStress;
        tau             (0.390796574 0 0);
        value           uniform (0 0 0);
    }
    sides
    {
        type            symmetry;
    }
    outlet
    {
        type            inletOutlet;
        inletValue      uniform (0 0 0);
        value           uniform (0 0 0);
    }
}


// ************************************************************************* //
